% Model:              Devoir2_V11.mph
% Version:            COMSOL 5.6.0.401
% Date:               Oct 26 2022, 19:06
% Dimension:          1
% Nodes:              5
% Expressions:        1
% Description:        Température
% R                       T2 (K) @ t=10, delta_t=0.01
0                         1.0438941769660397
0.12499999999999997       1.389995395389124
0.24999999999999994       2.5719862886353506
0.3749999999999999        5.07871137742162
0.5                       9.999999999999998
