% Model:              Devoir2_V11.mph
% Version:            COMSOL 5.6.0.401
% Date:               Oct 26 2022, 19:17
% Dimension:          1
% Nodes:              5
% Expressions:        1
% Description:        Température
% R                       T2 (K) @ t=25, delta_t=1
0                         1.76451877648883
0.12499999999999997       2.058805686530115
0.24999999999999994       3.0842694564930664
0.3749999999999999        5.347449565408499
0.5                       9.999999999999998
