% Model:              Devoir2_V11.mph
% Version:            COMSOL 5.6.0.401
% Date:               Oct 26 2022, 18:48
% Dimension:          1
% Nodes:              3
% Expressions:        1
% Description:        Température
% R                       T2 (K) @ t=1, N=3
0                         6.99976411799364E-4
0.25000000000000006       0.0617482275404328
0.5                       9.999999999999998
